   4   4   1   0
  0.1736423E+02  0.2911132E-09  0.2911132E-09  0.9463709E-09  0.5000000E-15
   1.0000000000000000E-004
  CAR 
 unknown system                          
     20.14589676     -5.53228561  301      3.08548878      1.00000000
     -5.532  0.0000E+00  0.0000E+00  0.0000E+00  0.0000E+00
     -5.447  0.0000E+00  0.0000E+00  0.0000E+00  0.0000E+00
     -5.361  0.0000E+00  0.0000E+00  0.0000E+00  0.0000E+00
     -5.276  0.0000E+00  0.0000E+00  0.0000E+00  0.0000E+00
     -5.190  0.0000E+00  0.0000E+00  0.0000E+00  0.0000E+00
     -5.104  0.0000E+00  0.0000E+00  0.0000E+00  0.0000E+00
     -5.019  0.0000E+00  0.0000E+00  0.0000E+00  0.0000E+00
     -4.933  0.0000E+00  0.0000E+00  0.0000E+00  0.0000E+00
     -4.848  0.0000E+00  0.0000E+00  0.0000E+00  0.0000E+00
     -4.762  0.0000E+00  0.0000E+00  0.0000E+00  0.0000E+00
     -4.676  0.0000E+00  0.0000E+00  0.0000E+00  0.0000E+00
     -4.591  0.0000E+00  0.0000E+00  0.0000E+00  0.0000E+00
     -4.505  0.0000E+00  0.0000E+00  0.0000E+00  0.0000E+00
     -4.420  0.0000E+00  0.0000E+00  0.0000E+00  0.0000E+00
     -4.334  0.7873E-05  0.7865E-05  0.8168E-07  0.8156E-07
     -4.248  0.1107E-03  0.1107E-03  0.4308E-05  0.4306E-05
     -4.163  0.3326E-03  0.3326E-03  0.2243E-04  0.2243E-04
     -4.077  0.6736E-03  0.6736E-03  0.6465E-04  0.6464E-04
     -3.992  0.1010E-02  0.1010E-02  0.1382E-03  0.1381E-03
     -3.906  0.1300E-02  0.1300E-02  0.2369E-03  0.2369E-03
     -3.820  0.1575E-02  0.1575E-02  0.3602E-03  0.3602E-03
     -3.735  0.1814E-02  0.1814E-02  0.5055E-03  0.5055E-03
     -3.649  0.2016E-02  0.2016E-02  0.6697E-03  0.6697E-03
     -3.564  0.2281E-02  0.2281E-02  0.8519E-03  0.8519E-03
     -3.478  0.2643E-02  0.2643E-02  0.1062E-02  0.1062E-02
     -3.392  0.3049E-02  0.3049E-02  0.1306E-02  0.1306E-02
     -3.307  0.3527E-02  0.3527E-02  0.1586E-02  0.1586E-02
     -3.221  0.4083E-02  0.4083E-02  0.1911E-02  0.1911E-02
     -3.136  0.4864E-02  0.4863E-02  0.2292E-02  0.2292E-02
     -3.050  0.7761E-02  0.7758E-02  0.2767E-02  0.2767E-02
     -2.964  0.2382E-01  0.2381E-01  0.4040E-02  0.4039E-02
     -2.879  0.4561E-01  0.4561E-01  0.7039E-02  0.7038E-02
     -2.793  0.5832E-01  0.5832E-01  0.1164E-01  0.1163E-01
     -2.708  0.6370E-01  0.6370E-01  0.1680E-01  0.1680E-01
     -2.622  0.8827E-01  0.8826E-01  0.2313E-01  0.2313E-01
     -2.536  0.6674E-01  0.6675E-01  0.2998E-01  0.2998E-01
     -2.451  0.8789E-01  0.8789E-01  0.3658E-01  0.3658E-01
     -2.365  0.5900E-01  0.5900E-01  0.4366E-01  0.4366E-01
     -2.280  0.3286E-01  0.3286E-01  0.4694E-01  0.4694E-01
     -2.194  0.4864E-01  0.4863E-01  0.5030E-01  0.5030E-01
     -2.109  0.4518E-01  0.4518E-01  0.5475E-01  0.5475E-01
     -2.023  0.3559E-01  0.3561E-01  0.5833E-01  0.5833E-01
     -1.937  0.4940E-01  0.4940E-01  0.6179E-01  0.6179E-01
     -1.852  0.8689E-01  0.8689E-01  0.6797E-01  0.6797E-01
     -1.766  0.9876E-01  0.9878E-01  0.7619E-01  0.7619E-01
     -1.681  0.3367E-01  0.3366E-01  0.8051E-01  0.8051E-01
     -1.595  0.6528E-01  0.6526E-01  0.8488E-01  0.8488E-01
     -1.509  0.1080E+00  0.1080E+00  0.9210E-01  0.9210E-01
     -1.424  0.7337E-01  0.7339E-01  0.1008E+00  0.1008E+00
     -1.338  0.7079E-01  0.7078E-01  0.1062E+00  0.1062E+00
     -1.253  0.6727E-01  0.6727E-01  0.1121E+00  0.1121E+00
     -1.167  0.6565E-01  0.6565E-01  0.1173E+00  0.1173E+00
     -1.081  0.5197E-01  0.5197E-01  0.1224E+00  0.1224E+00
     -0.996  0.6117E-01  0.6116E-01  0.1268E+00  0.1268E+00
     -0.910  0.8336E-01  0.8336E-01  0.1341E+00  0.1341E+00
     -0.825  0.6733E-01  0.6732E-01  0.1398E+00  0.1398E+00
     -0.739  0.6158E-01  0.6159E-01  0.1455E+00  0.1455E+00
     -0.653  0.5419E-01  0.5416E-01  0.1503E+00  0.1503E+00
     -0.568  0.7475E-01  0.7475E-01  0.1561E+00  0.1561E+00
     -0.482  0.5927E-01  0.5927E-01  0.1618E+00  0.1618E+00
     -0.397  0.5967E-01  0.5967E-01  0.1669E+00  0.1669E+00
     -0.311  0.5756E-01  0.5755E-01  0.1715E+00  0.1715E+00
     -0.225  0.6372E-01  0.6372E-01  0.1768E+00  0.1768E+00
     -0.140  0.1181E+00  0.1185E+00  0.1827E+00  0.1827E+00
     -0.054  0.6752E-01  0.6752E-01  0.1898E+00  0.1898E+00
      0.031  0.7424E-01  0.7422E-01  0.1956E+00  0.1956E+00
      0.117  0.9165E-01  0.9179E-01  0.2060E+00  0.2060E+00
      0.203  0.6008E-02  0.6008E-02  0.2074E+00  0.2074E+00
      0.288  0.5323E-02  0.5323E-02  0.2078E+00  0.2078E+00
      0.374  0.4976E-02  0.4976E-02  0.2083E+00  0.2083E+00
      0.459  0.4771E-02  0.4771E-02  0.2087E+00  0.2087E+00
      0.545  0.4715E-02  0.4715E-02  0.2091E+00  0.2091E+00
      0.630  0.4714E-02  0.4715E-02  0.2095E+00  0.2095E+00
      0.716  0.4718E-02  0.4718E-02  0.2099E+00  0.2099E+00
      0.802  0.4725E-02  0.4725E-02  0.2103E+00  0.2103E+00
      0.887  0.4732E-02  0.4732E-02  0.2107E+00  0.2107E+00
      0.973  0.4740E-02  0.4740E-02  0.2111E+00  0.2111E+00
      1.058  0.4748E-02  0.4748E-02  0.2115E+00  0.2115E+00
      1.144  0.4758E-02  0.4758E-02  0.2119E+00  0.2119E+00
      1.230  0.4768E-02  0.4768E-02  0.2123E+00  0.2123E+00
      1.315  0.4788E-02  0.4788E-02  0.2128E+00  0.2128E+00
      1.401  0.4823E-02  0.4823E-02  0.2132E+00  0.2132E+00
      1.486  0.4854E-02  0.4854E-02  0.2136E+00  0.2136E+00
      1.572  0.4814E-02  0.4814E-02  0.2140E+00  0.2140E+00
      1.658  0.4784E-02  0.4784E-02  0.2144E+00  0.2144E+00
      1.743  0.4784E-02  0.4784E-02  0.2148E+00  0.2148E+00
      1.829  0.4850E-02  0.4850E-02  0.2152E+00  0.2152E+00
      1.914  0.4919E-02  0.4919E-02  0.2156E+00  0.2156E+00
      2.000  0.4990E-02  0.4990E-02  0.2161E+00  0.2161E+00
      2.086  0.5063E-02  0.5063E-02  0.2165E+00  0.2165E+00
      2.171  0.5198E-02  0.5198E-02  0.2169E+00  0.2169E+00
      2.257  0.5421E-02  0.5420E-02  0.2174E+00  0.2174E+00
      2.342  0.5618E-02  0.5618E-02  0.2179E+00  0.2179E+00
      2.428  0.5776E-02  0.5776E-02  0.2183E+00  0.2183E+00
      2.514  0.5820E-02  0.5820E-02  0.2188E+00  0.2188E+00
      2.599  0.5857E-02  0.5857E-02  0.2193E+00  0.2193E+00
      2.685  0.5888E-02  0.5888E-02  0.2198E+00  0.2198E+00
      2.770  0.5913E-02  0.5913E-02  0.2204E+00  0.2204E+00
      2.856  0.5929E-02  0.5929E-02  0.2209E+00  0.2209E+00
      2.942  0.5940E-02  0.5940E-02  0.2214E+00  0.2214E+00
      3.027  0.5950E-02  0.5950E-02  0.2219E+00  0.2219E+00
      3.113  0.5954E-02  0.5954E-02  0.2224E+00  0.2224E+00
      3.198  0.5952E-02  0.5952E-02  0.2229E+00  0.2229E+00
      3.284  0.5945E-02  0.5945E-02  0.2234E+00  0.2234E+00
      3.369  0.5928E-02  0.5928E-02  0.2239E+00  0.2239E+00
      3.455  0.5880E-02  0.5880E-02  0.2244E+00  0.2244E+00
      3.541  0.6725E-02  0.6724E-02  0.2249E+00  0.2249E+00
      3.626  0.6787E-02  0.6787E-02  0.2255E+00  0.2255E+00
      3.712  0.6601E-02  0.6601E-02  0.2261E+00  0.2261E+00
      3.797  0.6408E-02  0.6409E-02  0.2266E+00  0.2266E+00
      3.883  0.5727E-02  0.5727E-02  0.2272E+00  0.2272E+00
      3.969  0.5492E-02  0.5492E-02  0.2276E+00  0.2276E+00
      4.054  0.5368E-02  0.5368E-02  0.2281E+00  0.2281E+00
      4.140  0.5273E-02  0.5273E-02  0.2286E+00  0.2286E+00
      4.225  0.5209E-02  0.5209E-02  0.2290E+00  0.2290E+00
      4.311  0.5169E-02  0.5169E-02  0.2295E+00  0.2295E+00
      4.397  0.5123E-02  0.5123E-02  0.2299E+00  0.2299E+00
      4.482  0.5073E-02  0.5073E-02  0.2303E+00  0.2303E+00
      4.568  0.5068E-02  0.5068E-02  0.2308E+00  0.2308E+00
      4.653  0.5122E-02  0.5122E-02  0.2312E+00  0.2312E+00
      4.739  0.5247E-02  0.5247E-02  0.2317E+00  0.2316E+00
      4.825  0.5641E-02  0.5641E-02  0.2321E+00  0.2321E+00
      4.910  0.6285E-02  0.6285E-02  0.2326E+00  0.2326E+00
      4.996  0.6454E-02  0.6454E-02  0.2332E+00  0.2332E+00
      5.081  0.6263E-02  0.6263E-02  0.2337E+00  0.2337E+00
      5.167  0.6116E-02  0.6116E-02  0.2342E+00  0.2342E+00
      5.253  0.5907E-02  0.5907E-02  0.2348E+00  0.2348E+00
      5.338  0.5596E-02  0.5596E-02  0.2353E+00  0.2353E+00
      5.424  0.5289E-02  0.5289E-02  0.2357E+00  0.2357E+00
      5.509  0.4991E-02  0.4991E-02  0.2362E+00  0.2362E+00
      5.595  0.4890E-02  0.4890E-02  0.2366E+00  0.2366E+00
      5.681  0.4800E-02  0.4800E-02  0.2370E+00  0.2370E+00
      5.766  0.4691E-02  0.4691E-02  0.2374E+00  0.2374E+00
      5.852  0.4565E-02  0.4565E-02  0.2378E+00  0.2378E+00
      5.937  0.4421E-02  0.4421E-02  0.2382E+00  0.2382E+00
      6.023  0.4260E-02  0.4260E-02  0.2386E+00  0.2386E+00
      6.108  0.4105E-02  0.4105E-02  0.2389E+00  0.2389E+00
      6.194  0.3994E-02  0.3994E-02  0.2393E+00  0.2393E+00
      6.280  0.3926E-02  0.3927E-02  0.2396E+00  0.2396E+00
      6.365  0.3916E-02  0.3916E-02  0.2399E+00  0.2399E+00
      6.451  0.6786E-02  0.6790E-02  0.2406E+00  0.2406E+00
      6.536  0.4067E-02  0.4067E-02  0.2410E+00  0.2410E+00
      6.622  0.3434E-02  0.3434E-02  0.2413E+00  0.2413E+00
      6.708  0.2924E-02  0.2924E-02  0.2416E+00  0.2416E+00
      6.793  0.2524E-02  0.2524E-02  0.2418E+00  0.2418E+00
      6.879  0.2264E-02  0.2264E-02  0.2420E+00  0.2420E+00
      6.964  0.2150E-02  0.2150E-02  0.2422E+00  0.2422E+00
      7.050  0.2128E-02  0.2128E-02  0.2424E+00  0.2424E+00
      7.136  0.2123E-02  0.2123E-02  0.2425E+00  0.2425E+00
      7.221  0.2426E-02  0.2426E-02  0.2427E+00  0.2427E+00
      7.307  0.4226E-02  0.4226E-02  0.2430E+00  0.2430E+00
      7.392  0.5635E-02  0.5634E-02  0.2434E+00  0.2434E+00
      7.478  0.6984E-02  0.6984E-02  0.2440E+00  0.2440E+00
      7.564  0.8039E-02  0.8039E-02  0.2446E+00  0.2446E+00
      7.649  0.8631E-02  0.8630E-02  0.2453E+00  0.2453E+00
      7.735  0.8937E-02  0.8937E-02  0.2461E+00  0.2461E+00
      7.820  0.9788E-02  0.9787E-02  0.2469E+00  0.2469E+00
      7.906  0.1097E-01  0.1097E-01  0.2478E+00  0.2478E+00
      7.992  0.1091E-01  0.1091E-01  0.2487E+00  0.2487E+00
      8.077  0.1046E-01  0.1046E-01  0.2496E+00  0.2496E+00
      8.163  0.9610E-02  0.9610E-02  0.2505E+00  0.2505E+00
      8.248  0.8562E-02  0.8563E-02  0.2513E+00  0.2513E+00
      8.334  0.7538E-02  0.7538E-02  0.2520E+00  0.2520E+00
      8.420  0.6075E-02  0.6075E-02  0.2526E+00  0.2526E+00
      8.505  0.5133E-02  0.5133E-02  0.2530E+00  0.2530E+00
      8.591  0.4944E-02  0.4944E-02  0.2535E+00  0.2535E+00
      8.676  0.4826E-02  0.4826E-02  0.2539E+00  0.2539E+00
      8.762  0.4772E-02  0.4772E-02  0.2543E+00  0.2543E+00
      8.847  0.4782E-02  0.4782E-02  0.2547E+00  0.2547E+00
      8.933  0.4855E-02  0.4855E-02  0.2551E+00  0.2551E+00
      9.019  0.4992E-02  0.4992E-02  0.2555E+00  0.2555E+00
      9.104  0.5303E-02  0.5303E-02  0.2560E+00  0.2560E+00
      9.190  0.5689E-02  0.5689E-02  0.2564E+00  0.2564E+00
      9.275  0.6128E-02  0.6128E-02  0.2569E+00  0.2569E+00
      9.361  0.6678E-02  0.6678E-02  0.2575E+00  0.2575E+00
      9.447  0.7416E-02  0.7416E-02  0.2581E+00  0.2581E+00
      9.532  0.8367E-02  0.8366E-02  0.2588E+00  0.2588E+00
      9.618  0.8684E-02  0.8683E-02  0.2595E+00  0.2595E+00
      9.703  0.8968E-02  0.8967E-02  0.2602E+00  0.2602E+00
      9.789  0.9238E-02  0.9237E-02  0.2610E+00  0.2610E+00
      9.875  0.9301E-02  0.9300E-02  0.2618E+00  0.2618E+00
      9.960  0.9143E-02  0.9143E-02  0.2626E+00  0.2626E+00
     10.046  0.9136E-02  0.9136E-02  0.2634E+00  0.2634E+00
     10.131  0.9158E-02  0.9158E-02  0.2642E+00  0.2642E+00
     10.217  0.8936E-02  0.8936E-02  0.2650E+00  0.2650E+00
     10.303  0.8680E-02  0.8680E-02  0.2657E+00  0.2657E+00
     10.388  0.8416E-02  0.8416E-02  0.2664E+00  0.2664E+00
     10.474  0.8064E-02  0.8065E-02  0.2671E+00  0.2671E+00
     10.559  0.7706E-02  0.7707E-02  0.2678E+00  0.2678E+00
     10.645  0.7353E-02  0.7354E-02  0.2685E+00  0.2685E+00
     10.731  0.7005E-02  0.7005E-02  0.2691E+00  0.2691E+00
     10.816  0.6661E-02  0.6662E-02  0.2697E+00  0.2697E+00
     10.902  0.6130E-02  0.6130E-02  0.2702E+00  0.2702E+00
     10.987  0.5548E-02  0.5549E-02  0.2707E+00  0.2707E+00
     11.073  0.5029E-02  0.5030E-02  0.2712E+00  0.2712E+00
     11.159  0.4618E-02  0.4618E-02  0.2716E+00  0.2716E+00
     11.244  0.4480E-02  0.4480E-02  0.2720E+00  0.2720E+00
     11.330  0.4471E-02  0.4471E-02  0.2723E+00  0.2723E+00
     11.415  0.4552E-02  0.4552E-02  0.2727E+00  0.2727E+00
     11.501  0.4132E-02  0.4132E-02  0.2731E+00  0.2731E+00
     11.587  0.3757E-02  0.3758E-02  0.2734E+00  0.2734E+00
     11.672  0.3496E-02  0.3496E-02  0.2738E+00  0.2738E+00
     11.758  0.3340E-02  0.3341E-02  0.2740E+00  0.2740E+00
     11.843  0.3207E-02  0.3208E-02  0.2743E+00  0.2743E+00
     11.929  0.3080E-02  0.3081E-02  0.2746E+00  0.2746E+00
     12.014  0.2958E-02  0.2959E-02  0.2749E+00  0.2749E+00
     12.100  0.2842E-02  0.2843E-02  0.2751E+00  0.2751E+00
     12.186  0.2732E-02  0.2732E-02  0.2753E+00  0.2753E+00
     12.271  0.2627E-02  0.2628E-02  0.2756E+00  0.2756E+00
     12.357  0.2527E-02  0.2528E-02  0.2758E+00  0.2758E+00
     12.442  0.2434E-02  0.2435E-02  0.2760E+00  0.2760E+00
     12.528  0.2346E-02  0.2347E-02  0.2762E+00  0.2762E+00
     12.614  0.2263E-02  0.2264E-02  0.2764E+00  0.2764E+00
     12.699  0.2186E-02  0.2188E-02  0.2766E+00  0.2766E+00
     12.785  0.2115E-02  0.2117E-02  0.2768E+00  0.2768E+00
     12.870  0.2050E-02  0.2051E-02  0.2770E+00  0.2770E+00
     12.956  0.1989E-02  0.1991E-02  0.2771E+00  0.2771E+00
     13.042  0.1932E-02  0.1934E-02  0.2773E+00  0.2773E+00
     13.127  0.1889E-02  0.1890E-02  0.2775E+00  0.2775E+00
     13.213  0.1852E-02  0.1853E-02  0.2776E+00  0.2776E+00
     13.298  0.1818E-02  0.1819E-02  0.2778E+00  0.2778E+00
     13.384  0.1787E-02  0.1788E-02  0.2779E+00  0.2779E+00
     13.470  0.1758E-02  0.1760E-02  0.2781E+00  0.2781E+00
     13.555  0.1733E-02  0.1735E-02  0.2782E+00  0.2782E+00
     13.641  0.1713E-02  0.1715E-02  0.2784E+00  0.2784E+00
     13.726  0.1697E-02  0.1699E-02  0.2785E+00  0.2785E+00
     13.812  0.1686E-02  0.1687E-02  0.2787E+00  0.2787E+00
     13.898  0.1678E-02  0.1679E-02  0.2788E+00  0.2788E+00
     13.983  0.1677E-02  0.1678E-02  0.2790E+00  0.2790E+00
     14.069  0.1686E-02  0.1687E-02  0.2791E+00  0.2791E+00
     14.154  0.1715E-02  0.1716E-02  0.2792E+00  0.2792E+00
     14.240  0.1735E-02  0.1736E-02  0.2794E+00  0.2794E+00
     14.326  0.1734E-02  0.1734E-02  0.2795E+00  0.2795E+00
     14.411  0.1713E-02  0.1713E-02  0.2797E+00  0.2797E+00
     14.497  0.1671E-02  0.1670E-02  0.2798E+00  0.2798E+00
     14.582  0.1600E-02  0.1600E-02  0.2800E+00  0.2800E+00
     14.668  0.1514E-02  0.1514E-02  0.2801E+00  0.2801E+00
     14.753  0.1431E-02  0.1432E-02  0.2802E+00  0.2802E+00
     14.839  0.1354E-02  0.1356E-02  0.2804E+00  0.2804E+00
     14.925  0.1283E-02  0.1285E-02  0.2805E+00  0.2805E+00
     15.010  0.1219E-02  0.1222E-02  0.2806E+00  0.2806E+00
     15.096  0.1162E-02  0.1165E-02  0.2807E+00  0.2807E+00
     15.181  0.1112E-02  0.1114E-02  0.2808E+00  0.2808E+00
     15.267  0.1067E-02  0.1068E-02  0.2809E+00  0.2809E+00
     15.353  0.1027E-02  0.1028E-02  0.2810E+00  0.2810E+00
     15.438  0.9918E-03  0.9919E-03  0.2810E+00  0.2810E+00
     15.524  0.9615E-03  0.9609E-03  0.2811E+00  0.2811E+00
     15.609  0.9358E-03  0.9346E-03  0.2812E+00  0.2812E+00
     15.695  0.9113E-03  0.9101E-03  0.2813E+00  0.2813E+00
     15.781  0.8873E-03  0.8860E-03  0.2814E+00  0.2814E+00
     15.866  0.8636E-03  0.8623E-03  0.2814E+00  0.2814E+00
     15.952  0.8403E-03  0.8389E-03  0.2815E+00  0.2815E+00
     16.037  0.8173E-03  0.8159E-03  0.2816E+00  0.2816E+00
     16.123  0.7948E-03  0.7933E-03  0.2816E+00  0.2817E+00
     16.209  0.7727E-03  0.7710E-03  0.2817E+00  0.2817E+00
     16.294  0.7509E-03  0.7491E-03  0.2818E+00  0.2818E+00
     16.380  0.7295E-03  0.7276E-03  0.2818E+00  0.2818E+00
     16.465  0.7086E-03  0.7064E-03  0.2819E+00  0.2819E+00
     16.551  0.6880E-03  0.6856E-03  0.2820E+00  0.2820E+00
     16.637  0.6678E-03  0.6652E-03  0.2820E+00  0.2820E+00
     16.722  0.6479E-03  0.6451E-03  0.2821E+00  0.2821E+00
     16.808  0.6285E-03  0.6254E-03  0.2821E+00  0.2821E+00
     16.893  0.6094E-03  0.6061E-03  0.2822E+00  0.2822E+00
     16.979  0.5908E-03  0.5871E-03  0.2822E+00  0.2822E+00
     17.065  0.5725E-03  0.5685E-03  0.2823E+00  0.2823E+00
     17.150  0.5665E-03  0.5629E-03  0.2823E+00  0.2823E+00
     17.236  0.5641E-03  0.5614E-03  0.2824E+00  0.2824E+00
     17.321  0.5604E-03  0.5588E-03  0.2824E+00  0.2824E+00
     17.407  0.5553E-03  0.5550E-03  0.2825E+00  0.2825E+00
     17.492  0.5220E-03  0.5221E-03  0.2825E+00  0.2825E+00
     17.578  0.4764E-03  0.4765E-03  0.2826E+00  0.2826E+00
     17.664  0.4323E-03  0.4324E-03  0.2826E+00  0.2826E+00
     17.749  0.3897E-03  0.3898E-03  0.2826E+00  0.2826E+00
     17.835  0.3486E-03  0.3487E-03  0.2827E+00  0.2827E+00
     17.920  0.3091E-03  0.3092E-03  0.2827E+00  0.2827E+00
     18.006  0.2712E-03  0.2712E-03  0.2827E+00  0.2827E+00
     18.092  0.2347E-03  0.2347E-03  0.2828E+00  0.2828E+00
     18.177  0.1998E-03  0.1998E-03  0.2828E+00  0.2828E+00
     18.263  0.1664E-03  0.1664E-03  0.2828E+00  0.2828E+00
     18.348  0.1346E-03  0.1345E-03  0.2828E+00  0.2828E+00
     18.434  0.1043E-03  0.1042E-03  0.2828E+00  0.2828E+00
     18.520  0.7551E-04  0.7538E-04  0.2828E+00  0.2828E+00
     18.605  0.4998E-04  0.4983E-04  0.2828E+00  0.2828E+00
     18.691  0.2970E-04  0.2955E-04  0.2828E+00  0.2828E+00
     18.776  0.1466E-04  0.1454E-04  0.2828E+00  0.2828E+00
     18.862  0.4881E-05  0.4793E-05  0.2828E+00  0.2828E+00
     18.948  0.3471E-06  0.3206E-06  0.2828E+00  0.2828E+00
     19.033  0.0000E+00  0.0000E+00  0.2828E+00  0.2828E+00
     19.119  0.0000E+00  0.0000E+00  0.2828E+00  0.2828E+00
     19.204  0.0000E+00  0.0000E+00  0.2828E+00  0.2828E+00
     19.290  0.0000E+00  0.0000E+00  0.2828E+00  0.2828E+00
     19.376  0.0000E+00  0.0000E+00  0.2828E+00  0.2828E+00
     19.461  0.0000E+00  0.0000E+00  0.2828E+00  0.2828E+00
     19.547  0.0000E+00  0.0000E+00  0.2828E+00  0.2828E+00
     19.632  0.0000E+00  0.0000E+00  0.2828E+00  0.2828E+00
     19.718  0.0000E+00  0.0000E+00  0.2828E+00  0.2828E+00
     19.804  0.0000E+00  0.0000E+00  0.2828E+00  0.2828E+00
     19.889  0.0000E+00  0.0000E+00  0.2828E+00  0.2828E+00
     19.975  0.0000E+00  0.0000E+00  0.2828E+00  0.2828E+00
     20.060  0.0000E+00  0.0000E+00  0.2828E+00  0.2828E+00
     20.146  0.0000E+00  0.0000E+00  0.2828E+00  0.2828E+00
     20.14589676     -5.53228561  301      3.08548878      1.00000000
     -5.532  0.0000E+00  0.0000E+00  0.0000E+00  0.0000E+00  0.0000E+00  0.0000E+00  0.0000E+00  0.0000E+00  0.0000E+00  0.0000E+00  0.0000E+00  0.0000E+00  0.0000E+00  0.0000E+00  0.0000E+00  0.0000E+00  0.0000E+00  0.0000E+00
     -5.447  0.0000E+00  0.0000E+00  0.0000E+00  0.0000E+00  0.0000E+00  0.0000E+00  0.0000E+00  0.0000E+00  0.0000E+00  0.0000E+00  0.0000E+00  0.0000E+00  0.0000E+00  0.0000E+00  0.0000E+00  0.0000E+00  0.0000E+00  0.0000E+00
     -5.361  0.0000E+00  0.0000E+00  0.0000E+00  0.0000E+00  0.0000E+00  0.0000E+00  0.0000E+00  0.0000E+00  0.0000E+00  0.0000E+00  0.0000E+00  0.0000E+00  0.0000E+00  0.0000E+00  0.0000E+00  0.0000E+00  0.0000E+00  0.0000E+00
     -5.276  0.0000E+00  0.0000E+00  0.0000E+00  0.0000E+00  0.0000E+00  0.0000E+00  0.0000E+00  0.0000E+00  0.0000E+00  0.0000E+00  0.0000E+00  0.0000E+00  0.0000E+00  0.0000E+00  0.0000E+00  0.0000E+00  0.0000E+00  0.0000E+00
     -5.190  0.0000E+00  0.0000E+00  0.0000E+00  0.0000E+00  0.0000E+00  0.0000E+00  0.0000E+00  0.0000E+00  0.0000E+00  0.0000E+00  0.0000E+00  0.0000E+00  0.0000E+00  0.0000E+00  0.0000E+00  0.0000E+00  0.0000E+00  0.0000E+00
     -5.104  0.0000E+00  0.0000E+00  0.0000E+00  0.0000E+00  0.0000E+00  0.0000E+00  0.0000E+00  0.0000E+00  0.0000E+00  0.0000E+00  0.0000E+00  0.0000E+00  0.0000E+00  0.0000E+00  0.0000E+00  0.0000E+00  0.0000E+00  0.0000E+00
     -5.019  0.0000E+00  0.0000E+00  0.0000E+00  0.0000E+00  0.0000E+00  0.0000E+00  0.0000E+00  0.0000E+00  0.0000E+00  0.0000E+00  0.0000E+00  0.0000E+00  0.0000E+00  0.0000E+00  0.0000E+00  0.0000E+00  0.0000E+00  0.0000E+00
     -4.933  0.0000E+00  0.0000E+00  0.0000E+00  0.0000E+00  0.0000E+00  0.0000E+00  0.0000E+00  0.0000E+00  0.0000E+00  0.0000E+00  0.0000E+00  0.0000E+00  0.0000E+00  0.0000E+00  0.0000E+00  0.0000E+00  0.0000E+00  0.0000E+00
     -4.848  0.0000E+00  0.0000E+00  0.0000E+00  0.0000E+00  0.0000E+00  0.0000E+00  0.0000E+00  0.0000E+00  0.0000E+00  0.0000E+00  0.0000E+00  0.0000E+00  0.0000E+00  0.0000E+00  0.0000E+00  0.0000E+00  0.0000E+00  0.0000E+00
     -4.762  0.0000E+00  0.0000E+00  0.0000E+00  0.0000E+00  0.0000E+00  0.0000E+00  0.0000E+00  0.0000E+00  0.0000E+00  0.0000E+00  0.0000E+00  0.0000E+00  0.0000E+00  0.0000E+00  0.0000E+00  0.0000E+00  0.0000E+00  0.0000E+00
     -4.676  0.0000E+00  0.0000E+00  0.0000E+00  0.0000E+00  0.0000E+00  0.0000E+00  0.0000E+00  0.0000E+00  0.0000E+00  0.0000E+00  0.0000E+00  0.0000E+00  0.0000E+00  0.0000E+00  0.0000E+00  0.0000E+00  0.0000E+00  0.0000E+00
     -4.591  0.0000E+00  0.0000E+00  0.0000E+00  0.0000E+00  0.0000E+00  0.0000E+00  0.0000E+00  0.0000E+00  0.0000E+00  0.0000E+00  0.0000E+00  0.0000E+00  0.0000E+00  0.0000E+00  0.0000E+00  0.0000E+00  0.0000E+00  0.0000E+00
     -4.505  0.0000E+00  0.0000E+00  0.0000E+00  0.0000E+00  0.0000E+00  0.0000E+00  0.0000E+00  0.0000E+00  0.0000E+00  0.0000E+00  0.0000E+00  0.0000E+00  0.0000E+00  0.0000E+00  0.0000E+00  0.0000E+00  0.0000E+00  0.0000E+00
     -4.420  0.0000E+00  0.0000E+00  0.0000E+00  0.0000E+00  0.0000E+00  0.0000E+00  0.0000E+00  0.0000E+00  0.0000E+00  0.0000E+00  0.0000E+00  0.0000E+00  0.0000E+00  0.0000E+00  0.0000E+00  0.0000E+00  0.0000E+00  0.0000E+00
     -4.334  0.8197E-04  0.8189E-04  0.6868E-06  0.6862E-06  0.1011E-05  0.1010E-05  0.6868E-06  0.6862E-06  0.1801E-06  0.1800E-06  0.2458E-06  0.2456E-06  0.5010E-06  0.5006E-06  0.2458E-06  0.2456E-06  0.1801E-06  0.1800E-06
     -4.248  0.1153E-02  0.1152E-02  0.9659E-05  0.9656E-05  0.1421E-04  0.1421E-04  0.9659E-05  0.9656E-05  0.2533E-05  0.2532E-05  0.3457E-05  0.3456E-05  0.7046E-05  0.7045E-05  0.3457E-05  0.3456E-05  0.2533E-05  0.2532E-05
     -4.163  0.3463E-02  0.3463E-02  0.2902E-04  0.2901E-04  0.4270E-04  0.4269E-04  0.2902E-04  0.2901E-04  0.7610E-05  0.7609E-05  0.1039E-04  0.1038E-04  0.2117E-04  0.2117E-04  0.1039E-04  0.1038E-04  0.7610E-05  0.7609E-05
     -4.077  0.7014E-02  0.7013E-02  0.5877E-04  0.5876E-04  0.8647E-04  0.8646E-04  0.5877E-04  0.5876E-04  0.1541E-04  0.1541E-04  0.2103E-04  0.2103E-04  0.4287E-04  0.4287E-04  0.2103E-04  0.2103E-04  0.1541E-04  0.1541E-04
     -3.992  0.1039E-01  0.1039E-01  0.1124E-03  0.1124E-03  0.1561E-03  0.1561E-03  0.1124E-03  0.1124E-03  0.4422E-04  0.4421E-04  0.5501E-04  0.5500E-04  0.7903E-04  0.7903E-04  0.5501E-04  0.5500E-04  0.4422E-04  0.4421E-04
     -3.906  0.1316E-01  0.1316E-01  0.1790E-03  0.1790E-03  0.2340E-03  0.2340E-03  0.1790E-03  0.1790E-03  0.1040E-03  0.1040E-03  0.1143E-03  0.1143E-03  0.1251E-03  0.1251E-03  0.1143E-03  0.1143E-03  0.1040E-03  0.1040E-03
     -3.820  0.1563E-01  0.1563E-01  0.2471E-03  0.2471E-03  0.3011E-03  0.3011E-03  0.2471E-03  0.2471E-03  0.1868E-03  0.1868E-03  0.1857E-03  0.1857E-03  0.4160E-03  0.4159E-03  0.1857E-03  0.1857E-03  0.1868E-03  0.1868E-03
     -3.735  0.1747E-01  0.1747E-01  0.3162E-03  0.3162E-03  0.3510E-03  0.3510E-03  0.3162E-03  0.3162E-03  0.2927E-03  0.2927E-03  0.2675E-03  0.2675E-03  0.1133E-02  0.1133E-02  0.2675E-03  0.2675E-03  0.2927E-03  0.2927E-03
     -3.649  0.1869E-01  0.1869E-01  0.3863E-03  0.3863E-03  0.3837E-03  0.3837E-03  0.3863E-03  0.3863E-03  0.4217E-03  0.4217E-03  0.3598E-03  0.3597E-03  0.2277E-02  0.2277E-02  0.3598E-03  0.3597E-03  0.4217E-03  0.4217E-03
     -3.564  0.2022E-01  0.2022E-01  0.4726E-03  0.4725E-03  0.4338E-03  0.4338E-03  0.4726E-03  0.4725E-03  0.6011E-03  0.6011E-03  0.4988E-03  0.4988E-03  0.3855E-02  0.3855E-02  0.4988E-03  0.4988E-03  0.6011E-03  0.6011E-03
     -3.478  0.2243E-01  0.2243E-01  0.5778E-03  0.5778E-03  0.5063E-03  0.5063E-03  0.5778E-03  0.5778E-03  0.8700E-03  0.8700E-03  0.6977E-03  0.6977E-03  0.5781E-02  0.5780E-02  0.6977E-03  0.6977E-03  0.8700E-03  0.8700E-03
     -3.392  0.2468E-01  0.2468E-01  0.6952E-03  0.6951E-03  0.5765E-03  0.5765E-03  0.6952E-03  0.6951E-03  0.1272E-02  0.1272E-02  0.1001E-02  0.1001E-02  0.8056E-02  0.8056E-02  0.1001E-02  0.1001E-02  0.1272E-02  0.1272E-02
     -3.307  0.2693E-01  0.2692E-01  0.8350E-03  0.8349E-03  0.6457E-03  0.6457E-03  0.8350E-03  0.8349E-03  0.1940E-02  0.1940E-02  0.1580E-02  0.1580E-02  0.1076E-01  0.1076E-01  0.1580E-02  0.1580E-02  0.1940E-02  0.1940E-02
     -3.221  0.2919E-01  0.2919E-01  0.9989E-03  0.9989E-03  0.7146E-03  0.7145E-03  0.9989E-03  0.9989E-03  0.2899E-02  0.2898E-02  0.2460E-02  0.2460E-02  0.1390E-01  0.1390E-01  0.2460E-02  0.2460E-02  0.2899E-02  0.2898E-02
     -3.136  0.3215E-01  0.3215E-01  0.1214E-02  0.1214E-02  0.7959E-03  0.7959E-03  0.1214E-02  0.1214E-02  0.4605E-02  0.4604E-02  0.4042E-02  0.4042E-02  0.1755E-01  0.1755E-01  0.4042E-02  0.4042E-02  0.4605E-02  0.4604E-02
     -3.050  0.3836E-01  0.3836E-01  0.1540E-02  0.1540E-02  0.9608E-03  0.9607E-03  0.1540E-02  0.1540E-02  0.1538E-01  0.1537E-01  0.1413E-01  0.1412E-01  0.2474E-01  0.2473E-01  0.1413E-01  0.1412E-01  0.1538E-01  0.1537E-01
     -2.964  0.6467E-01  0.6467E-01  0.2508E-02  0.2508E-02  0.2190E-02  0.2190E-02  0.2508E-02  0.2508E-02  0.8665E-01  0.8663E-01  0.7066E-01  0.7064E-01  0.6804E-01  0.6802E-01  0.7066E-01  0.7064E-01  0.8665E-01  0.8663E-01
     -2.879  0.1005E+00  0.1005E+00  0.4485E-02  0.4484E-02  0.4084E-02  0.4083E-02  0.4485E-02  0.4484E-02  0.1923E+00  0.1923E+00  0.1389E+00  0.1389E+00  0.1343E+00  0.1342E+00  0.1389E+00  0.1389E+00  0.1923E+00  0.1923E+00
     -2.793  0.1127E+00  0.1127E+00  0.6475E-02  0.6475E-02  0.5411E-02  0.5412E-02  0.6475E-02  0.6475E-02  0.2386E+00  0.2386E+00  0.1821E+00  0.1821E+00  0.1846E+00  0.1846E+00  0.1821E+00  0.1821E+00  0.2386E+00  0.2386E+00
     -2.708  0.1040E+00  0.1040E+00  0.6945E-02  0.6945E-02  0.5487E-02  0.5487E-02  0.6945E-02  0.6945E-02  0.2168E+00  0.2168E+00  0.2234E+00  0.2233E+00  0.2274E+00  0.2274E+00  0.2234E+00  0.2233E+00  0.2168E+00  0.2168E+00
     -2.622  0.9499E-01  0.9499E-01  0.7817E-02  0.7817E-02  0.7035E-02  0.7034E-02  0.7817E-02  0.7817E-02  0.2432E+00  0.2432E+00  0.3967E+00  0.3966E+00  0.3271E+00  0.3271E+00  0.3967E+00  0.3966E+00  0.2432E+00  0.2432E+00
     -2.536  0.6640E-01  0.6641E-01  0.5761E-02  0.5762E-02  0.6656E-02  0.6656E-02  0.5761E-02  0.5762E-02  0.2262E+00  0.2262E+00  0.2070E+00  0.2071E+00  0.3139E+00  0.3140E+00  0.2070E+00  0.2071E+00  0.2262E+00  0.2262E+00
     -2.451  0.8731E-01  0.8731E-01  0.8990E-02  0.8988E-02  0.1269E-01  0.1269E-01  0.8990E-02  0.8988E-02  0.2953E+00  0.2953E+00  0.2424E+00  0.2424E+00  0.4593E+00  0.4592E+00  0.2424E+00  0.2424E+00  0.2953E+00  0.2953E+00
     -2.365  0.4038E-01  0.4039E-01  0.6461E-02  0.6462E-02  0.6110E-02  0.6111E-02  0.6461E-02  0.6462E-02  0.1978E+00  0.1978E+00  0.2083E+00  0.2084E+00  0.2881E+00  0.2881E+00  0.2083E+00  0.2084E+00  0.1978E+00  0.1978E+00
     -2.280  0.1380E-01  0.1380E-01  0.3772E-02  0.3772E-02  0.3264E-02  0.3263E-02  0.3772E-02  0.3772E-02  0.1804E+00  0.1804E+00  0.1245E+00  0.1245E+00  0.1331E+00  0.1331E+00  0.1245E+00  0.1245E+00  0.1804E+00  0.1804E+00
     -2.194  0.1944E-01  0.1944E-01  0.6164E-02  0.6163E-02  0.5472E-02  0.5470E-02  0.6164E-02  0.6163E-02  0.2615E+00  0.2615E+00  0.1762E+00  0.1761E+00  0.1965E+00  0.1965E+00  0.1762E+00  0.1761E+00  0.2615E+00  0.2615E+00
     -2.109  0.1883E-01  0.1883E-01  0.5973E-02  0.5973E-02  0.5677E-02  0.5677E-02  0.5973E-02  0.5973E-02  0.1914E+00  0.1915E+00  0.1532E+00  0.1532E+00  0.2007E+00  0.2008E+00  0.1532E+00  0.1532E+00  0.1914E+00  0.1915E+00
     -2.023  0.1079E-01  0.1081E-01  0.3743E-02  0.3750E-02  0.6107E-02  0.6108E-02  0.3743E-02  0.3750E-02  0.1514E+00  0.1514E+00  0.1239E+00  0.1240E+00  0.1743E+00  0.1745E+00  0.1239E+00  0.1240E+00  0.1514E+00  0.1514E+00
     -1.937  0.1293E-01  0.1293E-01  0.7009E-02  0.7008E-02  0.6829E-02  0.6829E-02  0.7009E-02  0.7008E-02  0.2811E+00  0.2811E+00  0.1846E+00  0.1846E+00  0.1810E+00  0.1810E+00  0.1846E+00  0.1846E+00  0.2811E+00  0.2811E+00
     -1.852  0.2721E-01  0.2721E-01  0.1384E-01  0.1384E-01  0.1127E-01  0.1127E-01  0.1384E-01  0.1384E-01  0.3815E+00  0.3815E+00  0.3592E+00  0.3591E+00  0.3408E+00  0.3407E+00  0.3592E+00  0.3591E+00  0.3815E+00  0.3815E+00
     -1.766  0.4843E-01  0.4843E-01  0.1050E-01  0.1050E-01  0.1275E-01  0.1275E-01  0.1050E-01  0.1050E-01  0.4007E+00  0.4008E+00  0.4420E+00  0.4420E+00  0.5832E+00  0.5832E+00  0.4420E+00  0.4420E+00  0.4007E+00  0.4008E+00
     -1.681  0.1489E-01  0.1489E-01  0.2566E-02  0.2567E-02  0.4016E-02  0.4016E-02  0.2566E-02  0.2567E-02  0.1246E+00  0.1246E+00  0.1252E+00  0.1252E+00  0.1786E+00  0.1786E+00  0.1252E+00  0.1252E+00  0.1246E+00  0.1246E+00
     -1.595  0.1967E-01  0.1967E-01  0.8682E-02  0.8679E-02  0.8363E-02  0.8361E-02  0.8682E-02  0.8679E-02  0.1842E+00  0.1842E+00  0.3014E+00  0.3013E+00  0.2854E+00  0.2854E+00  0.3014E+00  0.3013E+00  0.1842E+00  0.1842E+00
     -1.509  0.2264E-01  0.2264E-01  0.1481E-01  0.1481E-01  0.1377E-01  0.1377E-01  0.1481E-01  0.1481E-01  0.4282E+00  0.4282E+00  0.5692E+00  0.5691E+00  0.2813E+00  0.2813E+00  0.5692E+00  0.5691E+00  0.4282E+00  0.4282E+00
     -1.424  0.8564E-02  0.8569E-02  0.7304E-02  0.7306E-02  0.6590E-02  0.6591E-02  0.7304E-02  0.7306E-02  0.3030E+00  0.3030E+00  0.4200E+00  0.4201E+00  0.1359E+00  0.1359E+00  0.4200E+00  0.4201E+00  0.3030E+00  0.3030E+00
     -1.338  0.1042E-01  0.1042E-01  0.6751E-02  0.6750E-02  0.1155E-01  0.1155E-01  0.6751E-02  0.6750E-02  0.3477E+00  0.3476E+00  0.2778E+00  0.2778E+00  0.2144E+00  0.2143E+00  0.2778E+00  0.2778E+00  0.3477E+00  0.3476E+00
     -1.253  0.1558E-01  0.1558E-01  0.9707E-02  0.9707E-02  0.9113E-02  0.9113E-02  0.9707E-02  0.9707E-02  0.3212E+00  0.3212E+00  0.2686E+00  0.2686E+00  0.3010E+00  0.3009E+00  0.2686E+00  0.2686E+00  0.3212E+00  0.3212E+00